#
840 atoms
3 atom types
9.9627082285218087e+00 3.0037291771481044e+01 xlo xhi
9.9627082285218087e+00 3.0037291771481044e+01 ylo yhi
9.9627082285218087e+00 3.0037291771481044e+01 zlo zhi

Masses

1 12.0107  # C
2 1.00794  # H
3 15.9994  # O

Atoms     # charge

1 1 0 19.826 21.9426 17.656
2 1 0 20.4011 21.213 18.681
3 1 0 21.3989 21.7338 19.5153
4 1 0 21.7579 23.041 19.383
5 1 0 21.2917 23.8088 18.335
6 1 0 20.3439 23.2579 17.4068
7 3 0 22.0539 20.8534 20.4911
8 1 0 19.7204 23.8638 16.2124
9 1 0 20.0724 25.184 16.0185
10 1 0 19.3945 25.9664 14.9036
11 3 0 18.0129 26.4707 15.3096
12 2 0 17.4907 25.6357 15.217
13 2 0 20.1638 26.6041 14.5225
14 2 0 19.4544 25.4111 13.9366
15 2 0 18.9098 23.3866 15.6095
16 2 0 22.8083 21.3476 20.8636
17 2 0 21.5427 24.8467 18.2648
18 2 0 22.556 23.4591 20.0644
19 2 0 20.0964 20.1821 18.8787
20 2 0 19.0058 21.484 17.0411
21 2 0 20.7658 25.69 16.6845
22 1 0 11.8906 27.9591 21.6419
23 1 0 11.6958 26.5972 21.7993
24 1 0 10.5545 25.9082 21.3137
25 1 0 29.64 26.6507 20.671
26 1 0 29.7908 28.0428 20.6199
27 1 0 10.904 28.7125 21.0028
28 3 0 10.4834 24.4501 21.5132
29 1 0 10.962 10.1066 20.6781
30 1 0 10.3941 10.6004 19.5381
31 1 0 10.6603 12.0571 19.2776
32 3 0 11.4359 12.8008 20.4472
33 2 0 11.495 13.6829 20.106
34 2 0 10.9883 12.1697 18.2651
35 2 0 29.7222 12.4594 19.0079
36 2 0 11.4701 10.7325 21.4263
37 2 0 11.0564 24.1386 22.2527
38 2 0 28.8965 28.6188 20.2704
39 2 0 28.6783 26.1599 20.3146
40 2 0 12.5192 26.0846 22.3339
41 2 0 12.8224 28.4594 21.9546
42 2 0 29.993 9.99135 18.8344
43 1 0 13.0011 28.7552 24.1693
44 1 0 13.4029 27.4672 24.4991
45 1 0 14.7419 27.1052 24.6401
46 1 0 15.6663 28.0878 24.2643
47 1 0 15.3303 29.3848 23.9242
48 1 0 13.9771 29.7198 23.8392
49 3 0 15.0688 25.7594 25.028
50 1 0 13.5657 11.0514 23.4925
51 1 0 12.2745 11.4286 23.7596
52 1 0 11.8456 12.8226 23.3036
53 3 0 12.953 13.8522 23.2576
54 2 0 12.355 14.5368 22.808
55 2 0 11.2581 12.7739 22.3393
56 2 0 10.8948 13.0887 23.8182
57 2 0 14.2596 11.8561 23.1217
58 2 0 14.2787 25.1408 25.0008
59 2 0 16.0676 10.0584 23.6352
60 2 0 16.7033 27.7955 24.292
61 2 0 12.6546 26.7002 24.6803
62 2 0 11.9642 29.0347 24.3089
63 2 0 11.5117 10.7473 24.1201
64 1 0 20.2533 26.9163 24.372
65 1 0 20.1233 28.2531 24.3115
66 1 0 21.0971 29.0414 23.6811
67 1 0 22.1877 28.4084 23.0657
68 1 0 22.4508 27.0623 23.17
69 1 0 21.4597 26.3065 23.8429
70 3 0 20.9937 10.3957 23.8469
71 1 0 21.5729 24.8279 24.0072
72 1 0 22.4496 24.0152 23.4086
73 1 0 22.3252 22.5255 23.6518
74 3 0 23.5208 21.6731 23.3612
75 2 0 23.5921 21.6575 22.3679
76 2 0 21.8843 22.436 24.6896
77 2 0 21.3623 22.1218 23.2058
78 2 0 20.8208 24.3619 24.6035
79 2 0 20.2589 10.5794 24.4924
80 2 0 23.3686 26.6031 22.7352
81 2 0 22.9099 29.0274 22.5253
82 2 0 19.2549 28.7313 24.7215
83 2 0 19.5372 26.2793 24.8779
84 2 0 23.1665 24.36 22.5854
85 1 0 22.4581 26.4945 27.2899
86 1 0 22.6726 27.8669 27.0503
87 1 0 23.5971 28.4393 26.1774
88 1 0 24.4782 27.4089 25.7872
89 1 0 24.4372 26.0486 26.0594
90 1 0 23.3601 25.4869 26.7954
91 3 0 23.6672 29.8048 25.7414
92 1 0 23.3368 24.0122 27.1022
93 1 0 22.9967 23.7527 28.4136
94 1 0 23.2195 22.3267 28.9618
95 3 0 23.6267 21.3155 27.9064
96 2 0 23.5391 20.6094 28.4819
97 2 0 23.8936 22.3937 29.7827
98 2 0 22.404 22.1081 29.6945
99 2 0 23.6702 23.311 26.3332
100 2 0 22.9527 10.2026 26.2928
101 2 0 25.1899 25.3397 25.6562
102 2 0 25.1775 27.7144 25.1315
103 2 0 22.0502 28.6105 27.566
104 2 0 21.6004 26.1628 27.8179
105 2 0 22.4589 24.4675 29.0672
106 1 0 29.9174 22.125 28.7218
107 1 0 10.9637 22.7 28.2011
108 1 0 12.2661 22.0583 28.1001
109 1 0 12.3322 20.864 28.7894
110 1 0 11.2591 20.2962 29.4581
111 1 0 9.97698 20.8302 29.3606
112 3 0 13.4106 22.5519 27.3672
113 1 0 28.9477 20.0401 30.0182
114 1 0 27.7299 20.6213 10.0296
115 1 0 26.5981 19.7733 10.5804
116 3 0 25.1716 20.2056 10.2662
117 2 0 25.2094 19.7293 29.4656
118 2 0 26.8059 18.7784 10.2837
119 2 0 26.8644 19.5414 11.6336
120 2 0 29.0571 18.9822 10.2081
121 2 0 13.1734 23.4739 27.0787
122 2 0 11.4729 19.3554 29.9955
123 2 0 13.2793 20.3069 28.8835
124 2 0 10.9444 23.6959 27.718
125 2 0 29.0053 22.67 28.7574
126 2 0 27.5379 21.7012 29.9854
127 1 0 28.271 19.7937 27.0411
128 1 0 27.0169 19.338 27.5645
129 1 0 26.8134 18.0348 27.674
130 1 0 27.846 17.0844 27.4981
131 1 0 29.0699 17.5129 27.0081
132 1 0 29.2984 18.908 26.7444
133 3 0 25.4893 17.4473 27.9455
134 1 0 10.415 19.5447 26.124
135 1 0 11.4205 18.7681 25.8174
136 1 0 12.7174 19.4145 25.3683
137 3 0 13.0831 19.0862 23.9605
138 2 0 12.2346 18.6476 23.6466
139 2 0 12.7111 20.4526 25.7655
140 2 0 13.4708 19.0402 26.0676
141 2 0 10.3996 20.6447 25.8745
142 2 0 24.8749 18.143 28.2372
143 2 0 29.8594 16.8053 26.8639
144 2 0 27.6685 16.0262 27.7173
145 2 0 26.1507 20.0325 27.656
146 2 0 28.4176 20.865 26.7606
147 2 0 11.4401 17.7334 26.0252
148 1 0 21.8658 17.4681 12.2243
149 1 0 22.0284 18.3381 11.1708
150 1 0 21.2495 19.5162 11.126
151 1 0 20.471 19.9246 12.1779
152 1 0 20.2213 19.0648 13.2388
153 1 0 20.9101 17.7915 13.2502
154 3 0 21.332 20.285 29.9748
155 1 0 20.7056 16.8934 14.3861
156 1 0 21.2671 15.648 14.4767
157 1 0 21.0688 14.901 15.7756
158 3 0 22.0412 13.7907 16.1227
159 2 0 21.483 13.0576 16.4482
160 2 0 20.9076 15.7106 16.4499
161 2 0 20.0459 14.498 15.8625
162 2 0 20.0358 17.2346 15.2271
163 2 0 21.8255 19.6556 29.2697
164 2 0 19.4553 19.3074 13.945
165 2 0 19.9953 20.8868 12.1391
166 2 0 22.8106 18.1793 10.4142
167 2 0 22.4401 16.6173 12.2959
168 2 0 21.9614 15.1843 13.7911
169 1 0 26.6608 16.5797 11.915
170 1 0 25.32 16.5863 11.5907
171 1 0 24.8866 15.852 10.4484
172 1 0 25.8596 15.2228 29.7171
173 1 0 27.1878 15.2545 10.0305
174 1 0 27.6575 15.803 11.2697
175 3 0 23.4963 15.8095 10.0667
176 1 0 29.0795 15.6978 11.6231
177 1 0 29.6935 14.5903 11.2316
178 1 0 11.0761 14.3636 11.5422
179 3 0 11.4831 14.5953 13.0084
180 2 0 12.2048 13.9539 13.2016
181 2 0 11.3527 13.4462 10.9542
182 2 0 11.5722 15.1121 10.8067
183 2 0 29.5691 16.4306 12.3056
184 2 0 23.3968 15.4052 29.2245
185 2 0 27.9187 14.6662 29.4412
186 2 0 25.4764 14.7947 28.8136
187 2 0 24.6208 17.211 12.1693
188 2 0 26.9645 17.1958 12.8007
189 2 0 29.1954 13.7721 10.7253
190 1 0 12.6978 26.2526 17.6306
191 1 0 12.7949 26.7355 16.3548
192 1 0 13.6436 26.1945 15.3241
193 1 0 14.3074 25.0626 15.6241
194 1 0 14.2087 24.4169 16.8712
195 1 0 13.3842 24.9936 17.8934
196 3 0 13.8221 26.7778 14.0139
197 1 0 13.3279 24.3687 19.2472
198 1 0 14.0469 23.3446 19.7254
199 1 0 14.1025 22.8914 21.1548
200 3 0 13.3317 23.7813 22.1263
201 2 0 13.659 23.4801 22.9949
202 2 0 13.8982 21.8235 21.2432
203 2 0 15.1295 22.6244 21.4334
204 2 0 12.6349 24.7408 19.9697
205 2 0 13.3322 27.6547 14.037
206 2 0 14.884 23.5714 17.1131
207 2 0 15.0227 24.5964 14.8947
208 2 0 12.2523 27.6198 16.0703
209 2 0 12.1312 26.7372 18.405
210 2 0 14.907 22.9505 19.1581
211 1 0 25.4728 16.2577 21.8791
212 1 0 25.958 17.4921 21.4511
213 1 0 25.108 18.5861 21.3688
214 1 0 23.7693 18.2946 21.6172
215 1 0 23.2311 17.0755 22.0632
216 1 0 24.1215 15.9726 22.1701
217 3 0 25.6301 19.9048 21.1101
218 1 0 23.5427 14.7563 22.7108
219 1 0 24.2893 13.6375 22.9988
220 1 0 23.613 12.3858 23.5399
221 3 0 22.9897 12.6584 24.9428
222 2 0 22.3184 11.9527 24.9909
223 2 0 22.9755 12.0054 22.7079
224 2 0 24.2617 11.4851 23.4369
225 2 0 22.4307 14.6095 22.8485
226 2 0 24.8053 20.5013 21.2236
227 2 0 22.2348 16.9877 22.3966
228 2 0 23.0746 19.1298 21.6366
229 2 0 27.0395 17.5743 21.2064
230 2 0 26.27 15.4982 21.8912
231 2 0 25.3383 13.6649 22.9766
232 1 0 12.2757 16.103 28.1935
233 1 0 12.7072 15.848 26.8906
234 1 0 13.9134 16.2754 26.4142
235 1 0 14.7374 17.0076 27.3257
236 1 0 14.2625 17.414 28.5617
237 1 0 13.0199 16.9128 29.037
238 3 0 14.2693 16.0204 25.0496
239 1 0 12.4939 17.2845 10.2643
240 1 0 13.2125 17.5495 11.3372
241 1 0 12.5483 17.9221 12.5505
242 3 0 11.9271 19.2476 12.5333
243 2 0 10.9881 19.1207 12.3679
244 2 0 11.8082 17.1207 12.7452
245 2 0 13.2393 17.731 13.3801
246 2 0 11.3874 17.3696 10.3483
247 2 0 13.4645 15.4867 24.6939
248 2 0 14.8398 17.9793 29.2597
249 2 0 15.7185 17.4286 26.974
250 2 0 12.0321 15.282 26.1744
251 2 0 11.2844 15.7229 28.3986
252 2 0 14.2814 17.4073 11.2998
253 1 0 26.9389 11.5161 17.2017
254 1 0 25.8549 10.7979 17.6662
255 1 0 25.1768 30.0313 16.7601
256 1 0 25.68 29.767 15.5003
257 1 0 26.8751 10.2398 15.103
258 1 0 27.5687 11.1808 15.9603
259 3 0 23.9145 29.3607 17.1448
260 1 0 28.8271 11.8809 15.6365
261 1 0 29.697 11.4963 14.6479
262 1 0 10.8349 12.3066 14.2797
263 3 0 11.8644 11.6957 13.2717
264 2 0 11.3114 11.1022 12.6292
265 2 0 10.4818 13.3144 13.8978
266 2 0 11.1789 12.7366 15.2194
267 2 0 28.9647 12.8514 16.0988
268 2 0 23.7563 29.6362 18.066
269 2 0 27.4659 30.0021 14.2106
270 2 0 25.1344 29.1008 14.751
271 2 0 25.5155 10.7196 18.7158
272 2 0 27.4183 12.2361 17.9126
273 2 0 29.5439 10.4858 14.1059
274 1 0 27.9352 23.4138 19.149
275 1 0 26.8768 23.3936 20.0348
276 1 0 25.6683 22.7489 19.8034
277 1 0 25.5559 22.0345 18.6046
278 1 0 26.6719 21.8263 17.7905
279 1 0 27.8571 22.6283 17.9788
280 3 0 24.6102 22.8606 20.7858
281 1 0 28.9636 22.225 17.0976
282 1 0 10.0304 22.968 17.015
283 1 0 11.1953 22.4389 16.2187
284 3 0 11.0742 22.3145 14.7007
285 2 0 11.387 23.227 14.5049
286 2 0 12.0847 22.9834 16.5447
287 2 0 11.318 21.495 16.7252
288 2 0 28.8715 21.3317 16.4981
289 2 0 24.9895 23.432 21.5406
290 2 0 26.5998 21.1227 16.9675
291 2 0 24.5787 21.555 18.3071
292 2 0 26.9762 23.9094 20.9704
293 2 0 28.8573 23.9191 19.3668
294 2 0 10.0632 23.923 17.5505
295 1 0 11.0797 20.631 20.4808
296 1 0 11.5178 20.9797 21.7383
297 1 0 10.6487 21.4088 22.8476
298 1 0 29.3563 21.1386 22.5809
299 1 0 28.7979 20.7212 21.3479
300 1 0 29.7243 20.4948 20.3302
301 3 0 11.1654 21.9013 24.0886
302 1 0 29.3207 19.893 18.9855
303 1 0 28.0696 19.4386 18.6975
304 1 0 27.8086 18.7336 17.3517
305 3 0 28.8896 17.7954 16.8851
306 2 0 29.5752 17.7726 17.6642
307 2 0 26.7928 18.4218 17.4701
308 2 0 27.4854 19.5175 16.6823
309 2 0 10.1198 19.6313 18.3294
310 2 0 12.1648 21.7711 23.9377
311 2 0 27.6954 20.4314 21.2537
312 2 0 28.5685 21.3695 23.3327
313 2 0 12.5705 21.2799 21.7594
314 2 0 11.7099 20.6295 19.6159
315 2 0 27.2793 19.5553 19.4292
316 1 0 19.4822 29.9342 10.5935
317 1 0 20.2724 10.4172 29.725
318 1 0 20.3196 10.0483 28.3575
319 1 0 19.4032 29.1526 27.993
320 1 0 18.479 28.6236 28.8387
321 1 0 18.5039 28.9678 10.1416
322 3 0 21.1024 10.8107 27.4373
323 1 0 17.4616 28.2095 10.8912
324 1 0 17.4824 28.3188 12.247
325 1 0 16.4534 27.496 13.0056
326 3 0 16.2278 26.0862 12.4366
327 2 0 15.6269 25.7092 13.1231
328 2 0 16.7673 27.5851 14.0846
329 2 0 15.6139 28.18 13.0826
330 2 0 16.7392 27.5979 10.3306
331 2 0 21.6455 11.488 27.9806
332 2 0 17.7726 27.9086 28.4195
333 2 0 19.3178 28.7962 26.9688
334 2 0 20.9358 11.2511 9.98454
335 2 0 19.5447 10.1434 11.6628
336 2 0 18.2016 29.0095 12.7443
337 1 0 17.4819 29.2067 16.7166
338 1 0 18.8292 29.4985 16.8505
339 1 0 19.3085 10.7636 16.9918
340 1 0 18.3568 11.7405 16.9235
341 1 0 16.9786 11.4781 16.8809
342 1 0 16.4715 10.1717 16.7453
343 3 0 20.6791 11.1087 17.2953
344 1 0 15.0887 29.8891 16.5183
345 1 0 14.1271 10.783 16.3974
346 1 0 12.7063 10.233 16.2643
347 3 0 12.4343 29.6038 14.9411
348 2 0 12.5055 10.3045 14.2985
349 2 0 12.4823 29.7827 17.1987
350 2 0 11.9991 11.0893 16.5291
351 2 0 14.7232 28.848 16.476
352 2 0 21.146 10.2008 17.1948
353 2 0 16.2139 12.2427 16.7568
354 2 0 18.6568 12.7634 17.0867
355 2 0 19.5384 28.6473 16.7285
356 2 0 17.1239 28.1873 16.6109
357 2 0 14.3401 11.7916 16.66
358 1 0 15.5546 12.9627 26.4201
359 1 0 16.8416 12.6044 26.1025
360 1 0 17.366 11.3546 26.3237
361 1 0 16.5572 10.3579 26.869
362 1 0 15.2339 10.5991 27.2043
363 1 0 14.758 11.8953 26.9918
364 3 0 18.6969 10.9686 25.8536
365 1 0 13.3882 12.3564 27.3604
366 1 0 12.6899 11.6152 28.2699
367 1 0 11.3283 12.2275 28.7184
368 3 0 10.5805 11.6489 29.8909
369 2 0 11.3079 11.6942 10.5262
370 2 0 11.5249 13.3239 28.7651
371 2 0 10.7337 12.3958 27.8084
372 2 0 13.0483 13.2971 27.0241
373 2 0 19.3903 11.6062 26.1055
374 2 0 14.6312 29.876 27.6277
375 2 0 17.0505 29.4679 27.0047
376 2 0 17.5698 13.3397 25.7046
377 2 0 15.1515 13.9312 26.378
378 2 0 13.0992 10.6639 28.6944
379 1 0 14.528 19.8637 17.627
380 1 0 13.5797 19.1428 18.3374
381 1 0 12.3935 18.6714 17.7781
382 1 0 12.1526 19.0735 16.4453
383 1 0 12.9734 19.9588 15.7366
384 1 0 14.1981 20.2731 16.3211
385 3 0 11.5041 17.8189 18.5162
386 1 0 15.185 21.1433 15.743
387 1 0 15.0091 21.6735 14.4944
388 1 0 16.0544 22.509 13.8216
389 3 0 16.7284 23.5696 14.6689
390 2 0 16.8319 24.3261 14.0211
391 2 0 16.8203 21.6955 13.6158
392 2 0 15.7839 22.7121 12.7496
393 2 0 16.1207 21.3726 16.2879
394 2 0 11.9155 17.5373 19.3425
395 2 0 12.6158 20.3321 14.8093
396 2 0 11.1442 18.8564 15.9734
397 2 0 13.8873 18.8723 19.3359
398 2 0 15.4145 20.0521 18.1296
399 2 0 14.0839 21.528 13.9489
400 1 0 17.0575 13.3246 22.907
401 1 0 18.3652 12.8709 22.9734
402 1 0 19.4687 13.517 22.3695
403 1 0 19.1199 14.6017 21.5641
404 1 0 17.8629 15.1105 21.4137
405 1 0 16.7802 14.472 22.0882
406 3 0 20.8726 13.1622 22.3658
407 1 0 15.4468 15.0754 22.0266
408 1 0 15.1531 16.1635 21.2517
409 1 0 13.7609 16.7097 21.4816
410 3 0 12.5991 15.9867 20.8169
411 2 0 13.1236 15.2328 20.3961
412 2 0 13.7081 16.9086 22.5267
413 2 0 13.7743 17.7611 21.1849
414 2 0 14.6873 14.6738 22.6531
415 2 0 20.8091 12.3976 22.9958
416 2 0 17.6743 15.9402 20.8106
417 2 0 19.9452 15.1024 21.0776
418 2 0 18.6086 12.0376 23.6173
419 2 0 16.2594 12.7446 23.3968
420 2 0 15.9045 16.6345 20.684
421 1 0 17.4058 11.9548 13.1995
422 1 0 16.1438 11.9781 13.7825
423 1 0 15.3957 13.158 13.995
424 1 0 16.1176 14.3359 13.814
425 1 0 17.4213 14.4589 13.3389
426 1 0 18.0036 13.2296 12.9676
427 3 0 13.9687 13.1299 14.2592
428 1 0 19.3964 13.2603 12.4097
429 1 0 19.7856 14.3411 11.6853
430 1 0 21.0067 14.2291 10.7806
431 3 0 21.0063 13.233 29.7098
432 2 0 21.5871 13.6947 29.0795
433 2 0 21.2071 15.244 10.5104
434 2 0 21.8686 14.2442 11.5333
435 2 0 19.9959 12.3685 12.3701
436 2 0 13.5874 12.2342 14.0707
437 2 0 17.9619 15.4073 13.1406
438 2 0 15.6166 15.3242 14.0396
439 2 0 15.7352 11.0351 14.1205
440 2 0 17.9641 10.9756 13.087
441 2 0 19.2313 15.2719 11.6487
442 1 0 17.4732 20.7357 26.1163
443 1 0 16.2554 21.317 25.8515
444 1 0 15.9525 21.979 24.6768
445 1 0 16.9655 22.0349 23.7246
446 1 0 18.2655 21.5607 23.9406
447 1 0 18.537 20.9329 25.1893
448 3 0 14.5986 22.3858 24.3558
449 1 0 19.9554 20.4958 25.416
450 1 0 20.3661 19.861 26.5512
451 1 0 21.73 19.2459 26.4893
452 3 0 22.2555 18.6828 27.8721
453 2 0 22.7814 17.9588 27.505
454 2 0 21.5889 18.5308 25.7081
455 2 0 22.3301 20.0621 25.9687
456 2 0 20.6506 20.5661 24.5358
457 2 0 13.9361 22.144 25.0704
458 2 0 18.9926 21.6431 23.1792
459 2 0 16.6455 22.4713 22.7863
460 2 0 15.4843 21.2101 26.5929
461 2 0 17.6769 20.2211 27.1087
462 2 0 19.7485 19.6588 27.3775
463 1 0 25.776 17.2953 24.6858
464 1 0 24.5342 16.999 25.2688
465 1 0 24.2424 15.7557 25.8644
466 1 0 25.1318 14.6713 25.6787
467 1 0 26.3026 14.8367 25.0019
468 1 0 26.6381 16.1705 24.586
469 3 0 23.0795 15.6146 26.6841
470 1 0 27.9477 16.3569 23.8962
471 1 0 28.4279 17.6208 23.5728
472 1 0 29.8062 17.5573 22.9188
473 3 0 10.5802 16.3591 23.1876
474 2 0 11.1976 16.2959 22.4146
475 2 0 29.664 17.8987 21.9107
476 2 0 10.2618 18.5668 22.9633
477 2 0 28.524 15.4672 23.7171
478 2 0 23.1083 14.661 27.0384
479 2 0 27.0212 14.0233 24.9097
480 2 0 24.9282 13.6703 26.133
481 2 0 23.8674 17.8912 25.3399
482 2 0 25.9963 18.344 24.3596
483 2 0 27.9332 18.5669 23.8187
484 1 0 16.6128 15.6459 17.8268
485 1 0 17.8704 16.2143 17.87
486 1 0 18.0722 17.4737 17.2473
487 1 0 17.0263 18.0162 16.4201
488 1 0 15.829 17.3778 16.1889
489 1 0 15.6072 16.1346 16.8672
490 3 0 19.3232 18.1901 17.4016
491 1 0 14.3437 15.4286 16.803
492 1 0 13.2613 15.9145 16.0893
493 1 0 11.9089 15.2879 16.394
494 3 0 11.8428 14.3616 17.605
495 2 0 11.8082 15.0257 18.3756
496 2 0 11.2078 16.1127 16.3556
497 2 0 11.6176 14.8588 15.3572
498 2 0 14.2397 14.5164 17.4058
499 2 0 19.7475 17.7117 18.1489
500 2 0 15.0854 17.8696 15.5665
501 2 0 17.1347 19.0028 16.0033
502 2 0 18.5892 15.9119 18.6213
503 2 0 16.2594 14.8197 18.4069
504 2 0 13.4222 16.8204 15.4855
505 1 0 16.8732 23.0003 28.6032
506 1 0 16.8287 24.0416 27.7
507 1 0 18.0116 24.5861 27.1506
508 1 0 19.2164 24.0621 27.6513
509 1 0 19.2805 23.0261 28.5679
510 1 0 18.0931 22.4752 29.063
511 3 0 18.1385 25.5599 26.0996
512 1 0 18.1637 21.1892 29.8908
513 1 0 17.0427 20.5481 10.2984
514 1 0 17.2241 19.1653 10.927
515 3 0 16.4781 18.8698 12.1496
516 2 0 15.8727 19.6216 12.2949
517 2 0 17.0813 18.3743 10.1534
518 2 0 18.3534 18.9371 10.8235
519 2 0 19.1235 20.7819 10.0234
520 2 0 17.1789 25.6385 25.7708
521 2 0 20.2866 22.6098 28.8928
522 2 0 20.0468 24.4989 27.1621
523 2 0 15.8431 24.4574 27.3415
524 2 0 15.9348 22.5735 28.9643
525 2 0 16.0323 20.8876 10.0455
526 1 0 27.2477 13.3853 21.299
527 1 0 28.4887 13.9579 21.2365
528 1 0 28.925 14.8303 20.2464
529 1 0 27.9297 15.1145 19.2789
530 1 0 26.6403 14.6342 19.3184
531 1 0 26.2874 13.6736 20.3033
532 3 0 10.0038 15.6466 20.1893
533 1 0 24.9648 13.1178 20.2701
534 1 0 23.9047 13.3545 19.4657
535 1 0 22.684 12.4539 19.5176
536 3 0 22.9435 11.0136 19.94
537 2 0 22.3411 10.556 19.285
538 2 0 22.0416 13.075 20.1232
539 2 0 22.1543 12.6085 18.5704
540 2 0 24.7202 12.2596 20.8968
541 2 0 10.4903 15.5668 21.0324
542 2 0 25.8587 14.9061 18.5442
543 2 0 28.0917 15.8688 18.5486
544 2 0 29.1084 13.7162 22.1379
545 2 0 26.9965 12.691 22.0867
546 2 0 24.0323 14.0541 18.6661
547 1 0 22.8775 20.6257 16.2314
548 1 0 22.9165 21.2933 15.0629
549 1 0 23.4257 20.7149 13.8544
550 1 0 23.9246 19.4147 14.0148
551 1 0 23.7507 18.6289 15.1867
552 1 0 23.1633 19.2188 16.2903
553 3 0 23.5139 21.5337 12.6806
554 1 0 22.7951 18.5509 17.5265
555 1 0 22.7488 17.2416 17.6011
556 1 0 22.4055 16.3968 18.8432
557 3 0 21.2438 16.7915 19.7349
558 2 0 21.4935 17.6869 19.9345
559 2 0 22.4399 15.2787 18.5354
560 2 0 23.4481 16.4545 19.2451
561 2 0 22.5561 19.2164 18.3434
562 2 0 23.8695 20.9456 11.9464
563 2 0 24.1739 17.6078 15.2643
564 2 0 24.4766 18.9388 13.183
565 2 0 22.6287 22.3855 15.2018
566 2 0 22.5047 21.1249 17.1891
567 2 0 23.1819 16.6947 16.7308
568 1 0 27.5197 13.9254 13.7198
569 1 0 27.2866 14.8145 14.7424
570 1 0 26.1012 14.999 15.4135
571 1 0 25.0818 14.1461 14.9816
572 1 0 25.2713 13.1909 13.9658
573 1 0 26.5032 13.0351 13.3287
574 3 0 26.0521 16.1376 16.3511
575 1 0 26.6247 11.9647 12.3169
576 1 0 27.8172 11.5354 11.9707
577 1 0 27.8724 10.3413 11.0494
578 3 0 28.3746 29.1098 11.5344
579 2 0 29.3353 29.2597 11.6391
580 2 0 26.8529 10.2615 10.583
581 2 0 28.4109 10.6805 10.1434
582 2 0 25.7053 11.4216 11.9838
583 2 0 26.9134 16.5992 16.1972
584 2 0 24.3796 12.5328 13.7043
585 2 0 24.1573 14.2518 15.4615
586 2 0 28.162 15.5299 14.9639
587 2 0 28.4375 13.8397 13.1484
588 2 0 28.6948 11.9854 12.3849
589 1 0 17.3832 17.7529 24.0769
590 1 0 16.4581 18.5849 23.5838
591 1 0 16.6413 19.3382 22.4215
592 1 0 17.8639 19.1685 21.7351
593 1 0 18.9321 18.4416 22.2534
594 1 0 18.625 17.7057 23.3729
595 3 0 15.5614 20.1274 21.9352
596 1 0 19.7115 16.8151 23.8807
597 1 0 19.4045 15.7992 24.7798
598 1 0 20.556 14.9227 25.2947
599 3 0 20.1828 13.9774 26.4547
600 2 0 21.0725 13.5771 26.6052
601 2 0 21.0196 14.404 24.4132
602 2 0 21.3666 15.6576 25.4327
603 2 0 20.6712 16.8159 23.453
604 2 0 14.8527 20.2325 22.6378
605 2 0 19.8813 18.324 21.7018
606 2 0 17.9934 19.7234 20.7706
607 2 0 15.4912 18.6135 24.1729
608 2 0 17.2893 17.1149 24.937
609 2 0 18.3772 15.6016 25.0675
610 1 0 27.8714 28.6609 27.0384
611 1 0 26.9162 29.5311 26.53
612 1 0 27.1718 10.6408 25.8432
613 1 0 28.5308 11.0044 25.8597
614 1 0 29.5812 10.2137 26.2655
615 1 0 29.1976 29.0245 26.7878
616 3 0 26.144 11.5003 25.3709
617 1 0 10.2139 28.2476 27.2785
618 1 0 11.5152 28.5148 27.1002
619 1 0 12.535 27.5592 27.6827
620 3 0 12.1299 26.1281 27.8465
621 2 0 12.0553 25.7178 26.9672
622 2 0 13.4596 27.7035 27.1548
623 2 0 12.799 28.1664 28.5842
624 2 0 9.98674 27.3935 27.9159
625 2 0 25.3029 10.977 25.3929
626 2 0 10.5221 10.5765 26.2618
627 2 0 28.767 12.0105 25.5159
628 2 0 25.897 29.252 26.7105
629 2 0 27.5449 27.7191 27.5061
630 2 0 11.8146 29.3315 26.3647
631 1 0 28.4141 25.0746 28.4352
632 1 0 28.5567 25.5947 29.6917
633 1 0 27.6216 25.2447 10.6284
634 1 0 26.606 24.3595 10.2422
635 1 0 26.4617 23.7717 29.0756
636 1 0 27.3236 24.2023 28.0305
637 3 0 27.4908 25.9595 11.8601
638 1 0 27.1932 23.7377 26.6431
639 1 0 26.1235 22.9573 26.2848
640 1 0 25.9541 22.4671 24.8645
641 3 0 26.5806 23.1086 23.657
642 2 0 26.2967 22.5337 22.922
643 2 0 26.0366 21.3637 24.8658
644 2 0 24.888 22.4289 24.8192
645 2 0 27.9233 24.0905 25.8728
646 2 0 28.0354 26.8102 11.7789
647 2 0 25.6457 23.0587 28.7983
648 2 0 25.8703 24.0596 11.0383
649 2 0 29.384 26.2347 29.8081
650 2 0 29.262 25.4246 27.7981
651 2 0 25.4644 22.5197 27.0439
652 1 0 18.4177 24.4175 20.3436
653 1 0 17.9102 23.1591 20.234
654 1 0 17.2341 22.6923 19.1114
655 1 0 17.1843 23.5691 17.9866
656 1 0 17.6286 24.8414 18.0504
657 1 0 18.247 25.3187 19.2635
658 3 0 16.6008 21.4141 19.0527
659 1 0 18.8408 26.6605 19.168
660 1 0 19.9869 27.0084 19.8928
661 1 0 20.6796 28.3049 19.558
662 3 0 21.2618 28.4675 18.1294
663 2 0 22.255 28.4726 18.2166
664 2 0 19.9663 29.1051 19.7744
665 2 0 21.4499 28.436 20.3416
666 2 0 18.4987 27.3564 18.4409
667 2 0 16.4104 20.9861 19.947
668 2 0 17.6142 25.4967 17.1835
669 2 0 16.7186 23.2142 17.0606
670 2 0 17.9765 22.5257 21.1298
671 2 0 18.9052 24.8424 21.272
672 2 0 20.4779 26.2654 20.5146
673 1 0 15.1759 13.9915 10.3754
674 1 0 14.5026 12.9345 10.9545
675 1 0 14.9507 11.6085 10.8128
676 1 0 16.1643 11.4066 10.1427
677 1 0 16.7548 12.4545 29.545
678 1 0 16.4019 13.8271 29.7501
679 3 0 14.3024 10.4728 11.5381
680 1 0 17.1444 14.9252 29.1435
681 1 0 18.3926 14.8339 28.6335
682 1 0 19.1113 16.1339 28.2774
683 3 0 18.9324 17.3551 29.133
684 2 0 19.8366 17.7842 29.2059
685 2 0 20.044 15.7552 27.8811
686 2 0 18.8119 16.3596 27.2199
687 2 0 16.5749 15.9106 29.2829
688 2 0 13.4873 10.7988 11.9537
689 2 0 17.6837 12.1867 28.9876
690 2 0 16.5287 10.3598 30.0178
691 2 0 13.5746 13.1311 11.4438
692 2 0 14.8 15.0129 10.5763
693 2 0 18.9747 13.8667 28.661
694 1 0 14.6797 29.8944 20.2211
695 1 0 14.318 11.1008 19.8318
696 1 0 15.2383 12.1714 19.6438
697 1 0 16.5762 11.8749 19.8213
698 1 0 17.0077 10.6119 20.0878
699 1 0 16.0749 29.613 20.2931
700 3 0 14.7668 13.4656 19.3258
701 1 0 16.6015 28.3384 20.8461
702 1 0 15.7602 27.268 21.0174
703 1 0 16.2894 25.9533 21.638
704 3 0 17.5351 26.0443 22.475
705 2 0 17.2599 25.7652 23.4056
706 2 0 15.408 25.5 22.1736
707 2 0 16.2708 25.2793 20.6809
708 2 0 17.5612 28.1738 21.2661
709 2 0 13.7882 13.4756 19.2989
710 2 0 18.0903 10.3995 20.2672
711 2 0 17.3277 12.7053 19.6923
712 2 0 13.2175 11.287 19.6476
713 2 0 13.9615 29.1124 20.3178
714 2 0 14.6953 27.3947 20.7791
715 1 0 11.4209 24.0593 11.9351
716 1 0 11.9974 22.7629 11.9994
717 1 0 13.2822 22.4661 11.5072
718 1 0 13.9611 23.5841 10.9957
719 1 0 13.3823 24.8513 10.8967
720 1 0 12.0925 25.1627 11.3476
721 3 0 13.7059 21.0825 11.368
722 1 0 11.4395 26.4929 11.3435
723 1 0 12.2185 27.5893 10.9448
724 1 0 11.6325 28.9596 11.0368
725 3 0 11.1449 29.3231 12.4225
726 2 0 11.8801 28.9947 12.9911
727 2 0 12.4575 29.4795 10.5876
728 2 0 11.0324 29.0585 10.091
729 2 0 10.4846 26.6835 11.8629
730 2 0 13.0589 20.5828 11.9066
731 2 0 13.9622 25.634 10.4595
732 2 0 14.9514 23.4675 10.5284
733 2 0 11.3519 21.9995 12.3695
734 2 0 10.4051 24.2806 12.2499
735 2 0 13.3187 27.5308 10.6427
736 1 0 28.5896 28.1841 17.2058
737 1 0 29.4128 28.1678 16.0498
738 1 0 29.5924 27.065 15.2225
739 1 0 28.7576 25.9676 15.5702
740 1 0 27.8372 25.8651 16.5946
741 1 0 27.766 27.0274 17.4167
742 3 0 10.414 26.9176 14.1157
743 1 0 26.8279 27.2452 18.5561
744 1 0 25.8829 26.2817 18.8649
745 1 0 24.9306 26.3856 20.0474
746 3 0 23.9445 27.5771 19.9863
747 2 0 23.9095 27.715 19.0441
748 2 0 24.4941 25.3797 20.0297
749 2 0 25.4298 26.0095 20.9475
750 2 0 26.9108 28.1072 19.1973
751 2 0 10.8457 27.8379 13.9893
752 2 0 27.1523 25.0636 16.6754
753 2 0 28.8456 25.1135 14.9024
754 2 0 29.9753 29.1215 15.9352
755 2 0 28.4412 29.0386 17.8463
756 2 0 25.8218 25.4048 18.2095
757 1 0 26.7411 26.7918 23.133
758 1 0 26.016 27.9206 22.7559
759 1 0 26.6684 29.124 22.4484
760 1 0 27.9818 29.3845 22.8934
761 1 0 28.6968 28.3749 23.4603
762 1 0 28.0815 27.043 23.5786
763 3 0 26.0564 10.1263 21.6916
764 1 0 28.7587 25.8033 24.0752
765 1 0 29.9404 25.9079 24.7413
766 1 0 10.622 24.6024 24.9589
767 3 0 12.1424 24.6996 25.3037
768 2 0 12.4014 23.7969 25.1392
769 2 0 29.9995 24.0417 25.6183
770 2 0 10.3797 23.9414 24.1111
771 2 0 28.3562 24.7764 23.8932
772 2 0 25.1797 29.9432 21.3778
773 2 0 29.7206 28.6016 23.7693
774 2 0 28.3889 10.3216 22.8429
775 2 0 25.003 27.7574 22.5235
776 2 0 26.3389 25.763 23.1581
777 2 0 10.3282 26.8506 25.02
778 1 0 21.9608 24.6348 11.799
779 1 0 20.8874 23.9283 12.3167
780 1 0 19.572 24.1667 11.9975
781 1 0 19.305 25.3649 11.2679
782 1 0 20.3085 26.1219 10.7633
783 1 0 21.6753 25.703 10.9292
784 3 0 18.4817 23.3119 12.4482
785 1 0 22.7369 26.5105 10.2921
786 1 0 24.0434 26.2937 10.6254
787 1 0 25.0086 27.1622 29.888
788 3 0 25.5874 28.3664 10.5583
789 2 0 26.4483 28.0618 10.8317
790 2 0 25.7509 26.4344 29.5511
791 2 0 24.5249 27.3616 28.9155
792 2 0 22.5299 27.349 29.7097
793 2 0 17.691 23.8312 12.1758
794 2 0 20.0951 26.9645 10.1158
795 2 0 18.2873 25.7485 11.0607
796 2 0 21.1564 23.1255 13.0461
797 2 0 22.9713 24.2922 12.0077
798 2 0 24.3713 25.5727 11.3368
799 1 0 26.1777 22.1069 14.5623
800 1 0 26.8372 20.8996 14.3615
801 1 0 28.0165 20.7544 13.6543
802 1 0 28.5814 21.9508 13.2398
803 1 0 27.9848 23.2056 13.3023
804 1 0 26.7197 23.284 13.9959
805 3 0 28.5456 19.4454 13.2946
806 1 0 26.0266 24.5366 14.255
807 1 0 24.8559 24.6431 14.9563
808 1 0 24.3873 26.0215 15.3943
809 3 0 23.5034 26.0985 16.6303
810 2 0 23.0983 26.9734 16.4985
811 2 0 25.2481 26.7161 15.3353
812 2 0 23.8551 26.4953 14.5183
813 2 0 26.4661 25.4898 13.9293
814 2 0 29.5228 19.5978 13.139
815 2 0 28.483 24.1141 12.826
816 2 0 29.4743 21.8498 12.6319
817 2 0 26.4653 20.0004 14.9062
818 2 0 25.2317 22.1279 15.1599
819 2 0 24.2732 23.7742 15.1604
820 1 0 22.4542 11.4617 12.9874
821 1 0 22.056 10.7346 14.0767
822 1 0 22.0482 29.3911 14.0124
823 1 0 22.54 28.8453 12.8394
824 1 0 23.1315 29.5441 11.8038
825 1 0 23.1057 10.8861 11.8514
826 3 0 21.5254 28.5265 15.0702
827 1 0 23.5373 11.7374 10.6682
828 1 0 24.2527 11.2511 29.6791
829 1 0 24.5016 12.2076 28.5163
830 3 0 23.3642 12.9576 27.848
831 2 0 23.2152 12.3616 27.1439
832 2 0 25.3549 12.7897 28.8882
833 2 0 25.167 11.6739 27.8313
834 2 0 23.3345 12.8047 10.6503
835 2 0 21.7645 28.9875 15.9562
836 2 0 23.6343 29.0365 11.0272
837 2 0 22.5959 27.7588 12.8093
838 2 0 21.5273 11.2498 14.931
839 2 0 22.4697 12.5301 13.0393
840 2 0 24.487 10.2279 29.5871
