ITEM: TIMESTEP
0
ITEM: NUMBER OF ATOMS
840
ITEM: BOX BOUNDS pp pp pp
9.9627082285218087e+00 3.0037291771481044e+01
9.9627082285218087e+00 3.0037291771481044e+01
9.9627082285218087e+00 3.0037291771481044e+01
ITEM: ATOMS id x y z 
178 11.0761 14.3636 11.5422 
179 11.4831 14.5953 13.0084 
180 12.2048 13.9539 13.2016 
181 11.3527 13.4462 10.9542 
182 11.5722 15.1121 10.8067 
263 11.8644 11.6957 13.2717 
264 11.3114 11.1022 12.6292 
265 10.4818 13.3144 13.8978 
335 19.5447 10.1434 11.6628 
369 11.3079 11.6942 10.5262 
421 17.4058 11.9548 13.1995 
422 16.1438 11.9781 13.7825 
424 16.1176 14.3359 13.814 
425 17.4213 14.4589 13.3389 
426 18.0036 13.2296 12.9676 
428 19.3964 13.2603 12.4097 
429 19.7856 14.3411 11.6853 
435 19.9959 12.3685 12.3701 
437 17.9619 15.4073 13.1406 
440 17.9641 10.9756 13.087 
441 19.2313 15.2719 11.6487 
673 15.1759 13.9915 10.3754 
674 14.5026 12.9345 10.9545 
675 14.9507 11.6085 10.8128 
676 16.1643 11.4066 10.1427 
679 14.3024 10.4728 11.5381 
688 13.4873 10.7988 11.9537 
691 13.5746 13.1311 11.4438 
692 14.8 15.0129 10.5763 
164 19.4553 19.3074 13.945 
165 19.9953 20.8868 12.1391 
239 12.4939 17.2845 10.2643 
240 13.2125 17.5495 11.3372 
241 12.5483 17.9221 12.5505 
242 11.9271 19.2476 12.5333 
243 10.9881 19.1207 12.3679 
244 11.8082 17.1207 12.7452 
245 13.2393 17.731 13.3801 
246 11.3874 17.3696 10.3483 
252 14.2814 17.4073 11.2998 
388 16.0544 22.509 13.8216 
391 16.8203 21.6955 13.6158 
392 15.7839 22.7121 12.7496 
399 14.0839 21.528 13.9489 
513 17.0427 20.5481 10.2984 
514 17.2241 19.1653 10.927 
515 16.4781 18.8698 12.1496 
516 15.8727 19.6216 12.2949 
517 17.0813 18.3743 10.1534 
518 18.3534 18.9371 10.8235 
519 19.1235 20.7819 10.0234 
525 16.0323 20.8876 10.0455 
716 11.9974 22.7629 11.9994 
717 13.2822 22.4661 11.5072 
721 13.7059 21.0825 11.368 
730 13.0589 20.5828 11.9066 
733 11.3519 21.9995 12.3695 
784 18.4817 23.3119 12.4482 
14 19.4544 25.4111 13.9366 
316 19.4822 29.9342 10.5935 
321 18.5039 28.9678 10.1416 
323 17.4616 28.2095 10.8912 
324 17.4824 28.3188 12.247 
325 16.4534 27.496 13.0056 
326 16.2278 26.0862 12.4366 
327 15.6269 25.7092 13.1231 
329 15.6139 28.18 13.0826 
330 16.7392 27.5979 10.3306 
336 18.2016 29.0095 12.7443 
715 11.4209 24.0593 11.9351 
718 13.9611 23.5841 10.9957 
719 13.3823 24.8513 10.8967 
720 12.0925 25.1627 11.3476 
722 11.4395 26.4929 11.3435 
723 12.2185 27.5893 10.9448 
724 11.6325 28.9596 11.0368 
725 11.1449 29.3231 12.4225 
726 11.8801 28.9947 12.9911 
727 12.4575 29.4795 10.5876 
728 11.0324 29.0585 10.091 
729 10.4846 26.6835 11.8629 
731 13.9622 25.634 10.4595 
732 14.9514 23.4675 10.5284 
734 10.4051 24.2806 12.2499 
735 13.3187 27.5308 10.6427 
780 19.572 24.1667 11.9975 
781 19.305 25.3649 11.2679 
793 17.691 23.8312 12.1758 
795 18.2873 25.7485 11.0607 
262 10.8349 12.3066 14.2797 
266 11.1789 12.7366 15.2194 
339 19.3085 10.7636 16.9918 
340 18.3568 11.7405 16.9235 
341 16.9786 11.4781 16.8809 
342 16.4715 10.1717 16.7453 
345 14.1271 10.783 16.3974 
346 12.7063 10.233 16.2643 
348 12.5055 10.3045 14.2985 
350 11.9991 11.0893 16.5291 
353 16.2139 12.2427 16.7568 
354 18.6568 12.7634 17.0867 
357 14.3401 11.7916 16.66 
423 15.3957 13.158 13.995 
427 13.9687 13.1299 14.2592 
436 13.5874 12.2342 14.0707 
438 15.6166 15.3242 14.0396 
439 15.7352 11.0351 14.1205 
484 16.6128 15.6459 17.8268 
485 17.8704 16.2143 17.87 
489 15.6072 16.1346 16.8672 
491 14.3437 15.4286 16.803 
492 13.2613 15.9145 16.0893 
493 11.9089 15.2879 16.394 
494 11.8428 14.3616 17.605 
496 11.2078 16.1127 16.3556 
497 11.6176 14.8588 15.3572 
498 14.2397 14.5164 17.4058 
1 19.826 21.9426 17.656 
20 19.0058 21.484 17.0411 
282 10.0304 22.968 17.015 
283 11.1953 22.4389 16.2187 
284 11.0742 22.3145 14.7007 
285 11.387 23.227 14.5049 
286 12.0847 22.9834 16.5447 
287 11.318 21.495 16.7252 
379 14.528 19.8637 17.627 
381 12.3935 18.6714 17.7781 
382 12.1526 19.0735 16.4453 
383 12.9734 19.9588 15.7366 
384 14.1981 20.2731 16.3211 
386 15.185 21.1433 15.743 
387 15.0091 21.6735 14.4944 
393 16.1207 21.3726 16.2879 
395 12.6158 20.3321 14.8093 
396 11.1442 18.8564 15.9734 
486 18.0722 17.4737 17.2473 
487 17.0263 18.0162 16.4201 
488 15.829 17.3778 16.1889 
490 19.3232 18.1901 17.4016 
500 15.0854 17.8696 15.5665 
501 17.1347 19.0028 16.0033 
504 13.4222 16.8204 15.4855 
669 16.7186 23.2142 17.0606 
8 19.7204 23.8638 16.2124 
10 19.3945 25.9664 14.9036 
11 18.0129 26.4707 15.3096 
12 17.4907 25.6357 15.217 
15 18.9098 23.3866 15.6095 
190 12.6978 26.2526 17.6306 
191 12.7949 26.7355 16.3548 
192 13.6436 26.1945 15.3241 
193 14.3074 25.0626 15.6241 
194 14.2087 24.4169 16.8712 
195 13.3842 24.9936 17.8934 
196 13.8221 26.7778 14.0139 
205 13.3322 27.6547 14.037 
206 14.884 23.5714 17.1131 
207 15.0227 24.5964 14.8947 
208 12.2523 27.6198 16.0703 
294 10.0632 23.923 17.5505 
328 16.7673 27.5851 14.0846 
337 17.4819 29.2067 16.7166 
338 18.8292 29.4985 16.8505 
344 15.0887 29.8891 16.5183 
347 12.4343 29.6038 14.9411 
349 12.4823 29.7827 17.1987 
351 14.7232 28.848 16.476 
355 19.5384 28.6473 16.7285 
356 17.1239 28.1873 16.6109 
389 16.7284 23.5696 14.6689 
390 16.8319 24.3261 14.0211 
655 17.1843 23.5691 17.9866 
668 17.6142 25.4967 17.1835 
742 10.414 26.9176 14.1157 
751 10.8457 27.8379 13.9893 
29 10.962 10.1066 20.6781 
30 10.3941 10.6004 19.5381 
31 10.6603 12.0571 19.2776 
32 11.4359 12.8008 20.4472 
33 11.495 13.6829 20.106 
34 10.9883 12.1697 18.2651 
36 11.4701 10.7325 21.4263 
403 19.1199 14.6017 21.5641 
404 17.8629 15.1105 21.4137 
408 15.1531 16.1635 21.2517 
410 12.5991 15.9867 20.8169 
411 13.1236 15.2328 20.3961 
416 17.6743 15.9402 20.8106 
417 19.9452 15.1024 21.0776 
420 15.9045 16.6345 20.684 
495 11.8082 15.0257 18.3756 
502 18.5892 15.9119 18.6213 
503 16.2594 14.8197 18.4069 
532 10.0038 15.6466 20.1893 
541 10.4903 15.5668 21.0324 
695 14.318 11.1008 19.8318 
696 15.2383 12.1714 19.6438 
697 16.5762 11.8749 19.8213 
698 17.0077 10.6119 20.0878 
700 14.7668 13.4656 19.3258 
709 13.7882 13.4756 19.2989 
710 18.0903 10.3995 20.2672 
711 17.3277 12.7053 19.6923 
712 13.2175 11.287 19.6476 
198 14.0469 23.3446 19.7254 
199 14.1025 22.8914 21.1548 
202 13.8982 21.8235 21.2432 
203 15.1295 22.6244 21.4334 
210 14.907 22.9505 19.1581 
295 11.0797 20.631 20.4808 
296 11.5178 20.9797 21.7383 
309 10.1198 19.6313 18.3294 
313 12.5705 21.2799 21.7594 
314 11.7099 20.6295 19.6159 
380 13.5797 19.1428 18.3374 
385 11.5041 17.8189 18.5162 
394 11.9155 17.5373 19.3425 
397 13.8873 18.8723 19.3359 
398 15.4145 20.0521 18.1296 
409 13.7609 16.7097 21.4816 
413 13.7743 17.7611 21.1849 
499 19.7475 17.7117 18.1489 
592 17.8639 19.1685 21.7351 
595 15.5614 20.1274 21.9352 
605 19.8813 18.324 21.7018 
606 17.9934 19.7234 20.7706 
653 17.9102 23.1591 20.234 
654 17.2341 22.6923 19.1114 
658 16.6008 21.4141 19.0527 
667 16.4104 20.9861 19.947 
670 17.9765 22.5257 21.1298 
22 11.8906 27.9591 21.6419 
23 11.6958 26.5972 21.7993 
24 10.5545 25.9082 21.3137 
27 10.904 28.7125 21.0028 
28 10.4834 24.4501 21.5132 
41 12.8224 28.4594 21.9546 
197 13.3279 24.3687 19.2472 
204 12.6349 24.7408 19.9697 
209 12.1312 26.7372 18.405 
652 18.4177 24.4175 20.3436 
656 17.6286 24.8414 18.0504 
657 18.247 25.3187 19.2635 
659 18.8408 26.6605 19.168 
660 19.9869 27.0084 19.8928 
664 19.9663 29.1051 19.7744 
666 18.4987 27.3564 18.4409 
671 18.9052 24.8424 21.272 
694 14.6797 29.8944 20.2211 
699 16.0749 29.613 20.2931 
701 16.6015 28.3384 20.8461 
702 15.7602 27.268 21.0174 
703 16.2894 25.9533 21.638 
707 16.2708 25.2793 20.6809 
708 17.5612 28.1738 21.2661 
713 13.9615 29.1124 20.3178 
714 14.6953 27.3947 20.7791 
50 13.5657 11.0514 23.4925 
51 12.2745 11.4286 23.7596 
52 11.8456 12.8226 23.3036 
53 12.953 13.8522 23.2576 
54 12.355 14.5368 22.808 
55 11.2581 12.7739 22.3393 
56 10.8948 13.0887 23.8182 
57 14.2596 11.8561 23.1217 
59 16.0676 10.0584 23.6352 
63 11.5117 10.7473 24.1201 
238 14.2693 16.0204 25.0496 
247 13.4645 15.4867 24.6939 
364 18.6969 10.9686 25.8536 
376 17.5698 13.3397 25.7046 
400 17.0575 13.3246 22.907 
401 18.3652 12.8709 22.9734 
402 19.4687 13.517 22.3695 
405 16.7802 14.472 22.0882 
407 15.4468 15.0754 22.0266 
414 14.6873 14.6738 22.6531 
418 18.6086 12.0376 23.6173 
419 16.2594 12.7446 23.3968 
473 10.5802 16.3591 23.1876 
474 11.1976 16.2959 22.4146 
597 19.4045 15.7992 24.7798 
609 18.3772 15.6016 25.0675 
135 11.4205 18.7681 25.8174 
136 12.7174 19.4145 25.3683 
137 13.0831 19.0862 23.9605 
138 12.2346 18.6476 23.6466 
139 12.7111 20.4526 25.7655 
141 10.3996 20.6447 25.8745 
297 10.6487 21.4088 22.8476 
301 11.1654 21.9013 24.0886 
310 12.1648 21.7711 23.9377 
412 13.7081 16.9086 22.5267 
443 16.2554 21.317 25.8515 
444 15.9525 21.979 24.6768 
445 16.9655 22.0349 23.7246 
446 18.2655 21.5607 23.9406 
447 18.537 20.9329 25.1893 
448 14.5986 22.3858 24.3558 
449 19.9554 20.4958 25.416 
457 13.9361 22.144 25.0704 
458 18.9926 21.6431 23.1792 
459 16.6455 22.4713 22.7863 
476 10.2618 18.5668 22.9633 
589 17.3832 17.7529 24.0769 
590 16.4581 18.5849 23.5838 
591 16.6413 19.3382 22.4215 
593 18.9321 18.4416 22.2534 
594 18.625 17.7057 23.3729 
596 19.7115 16.8151 23.8807 
604 14.8527 20.2325 22.6378 
607 15.4912 18.6135 24.1729 
608 17.2893 17.1149 24.937 
37 11.0564 24.1386 22.2527 
40 12.5192 26.0846 22.3339 
43 13.0011 28.7552 24.1693 
44 13.4029 27.4672 24.4991 
45 14.7419 27.1052 24.6401 
46 15.6663 28.0878 24.2643 
47 15.3303 29.3848 23.9242 
48 13.9771 29.7198 23.8392 
49 15.0688 25.7594 25.028 
58 14.2787 25.1408 25.0008 
60 16.7033 27.7955 24.292 
61 12.6546 26.7002 24.6803 
62 11.9642 29.0347 24.3089 
82 19.2549 28.7313 24.7215 
83 19.5372 26.2793 24.8779 
200 13.3317 23.7813 22.1263 
201 13.659 23.4801 22.9949 
520 17.1789 25.6385 25.7708 
704 17.5351 26.0443 22.475 
705 17.2599 25.7652 23.4056 
706 15.408 25.5 22.1736 
766 10.622 24.6024 24.9589 
767 12.1424 24.6996 25.3037 
768 12.4014 23.7969 25.1392 
770 10.3797 23.9414 24.1111 
777 10.3282 26.8506 25.02 
232 12.2757 16.103 28.1935 
233 12.7072 15.848 26.8906 
234 13.9134 16.2754 26.4142 
250 12.0321 15.282 26.1744 
251 11.2844 15.7229 28.3986 
358 15.5546 12.9627 26.4201 
359 16.8416 12.6044 26.1025 
360 17.366 11.3546 26.3237 
361 16.5572 10.3579 26.869 
362 15.2339 10.5991 27.2043 
363 14.758 11.8953 26.9918 
365 13.3882 12.3564 27.3604 
366 12.6899 11.6152 28.2699 
367 11.3283 12.2275 28.7184 
368 10.5805 11.6489 29.8909 
370 11.5249 13.3239 28.7651 
371 10.7337 12.3958 27.8084 
372 13.0483 13.2971 27.0241 
373 19.3903 11.6062 26.1055 
377 15.1515 13.9312 26.378 
378 13.0992 10.6639 28.6944 
626 10.5221 10.5765 26.2618 
677 16.7548 12.4545 29.545 
678 16.4019 13.8271 29.7501 
680 17.1444 14.9252 29.1435 
681 18.3926 14.8339 28.6335 
682 19.1113 16.1339 28.2774 
686 18.8119 16.3596 27.2199 
687 16.5749 15.9106 29.2829 
689 17.6837 12.1867 28.9876 
690 16.5287 10.3598 30.0178 
693 18.9747 13.8667 28.661 
107 10.9637 22.7 28.2011 
108 12.2661 22.0583 28.1001 
109 12.3322 20.864 28.7894 
110 11.2591 20.2962 29.4581 
111 9.97698 20.8302 29.3606 
112 13.4106 22.5519 27.3672 
122 11.4729 19.3554 29.9955 
123 13.2793 20.3069 28.8835 
134 10.415 19.5447 26.124 
140 13.4708 19.0402 26.0676 
147 11.4401 17.7334 26.0252 
235 14.7374 17.0076 27.3257 
236 14.2625 17.414 28.5617 
237 13.0199 16.9128 29.037 
248 14.8398 17.9793 29.2597 
249 15.7185 17.4286 26.974 
442 17.4732 20.7357 26.1163 
460 15.4843 21.2101 26.5929 
461 17.6769 20.2211 27.1087 
462 19.7485 19.6588 27.3775 
505 16.8732 23.0003 28.6032 
509 19.2805 23.0261 28.5679 
510 18.0931 22.4752 29.063 
512 18.1637 21.1892 29.8908 
524 15.9348 22.5735 28.9643 
683 18.9324 17.3551 29.133 
684 19.8366 17.7842 29.2059 
121 13.1734 23.4739 27.0787 
124 10.9444 23.6959 27.718 
319 19.4032 29.1526 27.993 
320 18.479 28.6236 28.8387 
332 17.7726 27.9086 28.4195 
333 19.3178 28.7962 26.9688 
374 14.6312 29.876 27.6277 
375 17.0505 29.4679 27.0047 
506 16.8287 24.0416 27.7 
507 18.0116 24.5861 27.1506 
508 19.2164 24.0621 27.6513 
511 18.1385 25.5599 26.0996 
523 15.8431 24.4574 27.3415 
617 10.2139 28.2476 27.2785 
618 11.5152 28.5148 27.1002 
619 12.535 27.5592 27.6827 
620 12.1299 26.1281 27.8465 
621 12.0553 25.7178 26.9672 
622 13.4596 27.7035 27.1548 
623 12.799 28.1664 28.5842 
624 9.98674 27.3935 27.9159 
630 11.8146 29.3315 26.3647 
167 22.4401 16.6173 12.2959 
168 21.9614 15.1843 13.7911 
169 26.6608 16.5797 11.915 
170 25.32 16.5863 11.5907 
171 24.8866 15.852 10.4484 
173 27.1878 15.2545 10.0305 
174 27.6575 15.803 11.2697 
175 23.4963 15.8095 10.0667 
176 29.0795 15.6978 11.6231 
177 29.6935 14.5903 11.2316 
183 29.5691 16.4306 12.3056 
189 29.1954 13.7721 10.7253 
334 20.9358 11.2511 9.98454 
430 21.0067 14.2291 10.7806 
433 21.2071 15.244 10.5104 
434 21.8686 14.2442 11.5333 
568 27.5197 13.9254 13.7198 
572 25.2713 13.1909 13.9658 
573 26.5032 13.0351 13.3287 
575 26.6247 11.9647 12.3169 
576 27.8172 11.5354 11.9707 
577 27.8724 10.3413 11.0494 
580 26.8529 10.2615 10.583 
581 28.4109 10.6805 10.1434 
582 25.7053 11.4216 11.9838 
584 24.3796 12.5328 13.7043 
587 28.4375 13.8397 13.1484 
588 28.6948 11.9854 12.3849 
820 22.4542 11.4617 12.9874 
825 23.1057 10.8861 11.8514 
827 23.5373 11.7374 10.6682 
834 23.3345 12.8047 10.6503 
839 22.4697 12.5301 13.0393 
114 27.7299 20.6213 10.0296 
115 26.5981 19.7733 10.5804 
116 25.1716 20.2056 10.2662 
118 26.8059 18.7784 10.2837 
119 26.8644 19.5414 11.6336 
120 29.0571 18.9822 10.2081 
148 21.8658 17.4681 12.2243 
149 22.0284 18.3381 11.1708 
150 21.2495 19.5162 11.126 
151 20.471 19.9246 12.1779 
152 20.2213 19.0648 13.2388 
153 20.9101 17.7915 13.2502 
166 22.8106 18.1793 10.4142 
187 24.6208 17.211 12.1693 
188 26.9645 17.1958 12.8007 
549 23.4257 20.7149 13.8544 
553 23.5139 21.5337 12.6806 
562 23.8695 20.9456 11.9464 
564 24.4766 18.9388 13.183 
796 21.1564 23.1255 13.0461 
801 28.0165 20.7544 13.6543 
802 28.5814 21.9508 13.2398 
803 27.9848 23.2056 13.3023 
805 28.5456 19.4454 13.2946 
814 29.5228 19.5978 13.139 
816 29.4743 21.8498 12.6319 
578 28.3746 29.1098 11.5344 
579 29.3353 29.2597 11.6391 
633 27.6216 25.2447 10.6284 
634 26.606 24.3595 10.2422 
637 27.4908 25.9595 11.8601 
646 28.0354 26.8102 11.7789 
648 25.8703 24.0596 11.0383 
778 21.9608 24.6348 11.799 
779 20.8874 23.9283 12.3167 
782 20.3085 26.1219 10.7633 
783 21.6753 25.703 10.9292 
785 22.7369 26.5105 10.2921 
786 24.0434 26.2937 10.6254 
788 25.5874 28.3664 10.5583 
789 26.4483 28.0618 10.8317 
794 20.0951 26.9645 10.1158 
797 22.9713 24.2922 12.0077 
798 24.3713 25.5727 11.3368 
813 26.4661 25.4898 13.9293 
815 28.483 24.1141 12.826 
823 22.54 28.8453 12.8394 
824 23.1315 29.5441 11.8038 
836 23.6343 29.0365 11.0272 
837 22.5959 27.7588 12.8093 
156 21.2671 15.648 14.4767 
157 21.0688 14.901 15.7756 
158 22.0412 13.7907 16.1227 
159 21.483 13.0576 16.4482 
160 20.9076 15.7106 16.4499 
161 20.0459 14.498 15.8625 
253 26.9389 11.5161 17.2017 
254 25.8549 10.7979 17.6662 
257 26.8751 10.2398 15.103 
258 27.5687 11.1808 15.9603 
260 28.8271 11.8809 15.6365 
261 29.697 11.4963 14.6479 
267 28.9647 12.8514 16.0988 
272 27.4183 12.2361 17.9126 
273 29.5439 10.4858 14.1059 
343 20.6791 11.1087 17.2953 
352 21.146 10.2008 17.1948 
569 27.2866 14.8145 14.7424 
570 26.1012 14.999 15.4135 
571 25.0818 14.1461 14.9816 
574 26.0521 16.1376 16.3511 
583 26.9134 16.5992 16.1972 
585 24.1573 14.2518 15.4615 
586 28.162 15.5299 14.9639 
821 22.056 10.7346 14.0767 
838 21.5273 11.2498 14.931 
6 20.3439 23.2579 17.4068 
155 20.7056 16.8934 14.3861 
162 20.0358 17.2346 15.2271 
278 26.6719 21.8263 17.7905 
279 27.8571 22.6283 17.9788 
281 28.9636 22.225 17.0976 
288 28.8715 21.3317 16.4981 
290 26.5998 21.1227 16.9675 
304 27.8086 18.7336 17.3517 
305 28.8896 17.7954 16.8851 
306 29.5752 17.7726 17.6642 
307 26.7928 18.4218 17.4701 
308 27.4854 19.5175 16.6823 
547 22.8775 20.6257 16.2314 
548 22.9165 21.2933 15.0629 
550 23.9246 19.4147 14.0148 
551 23.7507 18.6289 15.1867 
552 23.1633 19.2188 16.2903 
554 22.7951 18.5509 17.5265 
555 22.7488 17.2416 17.6011 
563 24.1739 17.6078 15.2643 
565 22.6287 22.3855 15.2018 
566 22.5047 21.1249 17.1891 
567 23.1819 16.6947 16.7308 
799 26.1777 22.1069 14.5623 
800 26.8372 20.8996 14.3615 
804 26.7197 23.284 13.9959 
817 26.4653 20.0004 14.9062 
818 25.2317 22.1279 15.1599 
9 20.0724 25.184 16.0185 
13 20.1638 26.6041 14.5225 
21 20.7658 25.69 16.6845 
255 25.1768 30.0313 16.7601 
256 25.68 29.767 15.5003 
259 23.9145 29.3607 17.1448 
269 27.4659 30.0021 14.2106 
270 25.1344 29.1008 14.751 
736 28.5896 28.1841 17.2058 
737 29.4128 28.1678 16.0498 
738 29.5924 27.065 15.2225 
739 28.7576 25.9676 15.5702 
740 27.8372 25.8651 16.5946 
741 27.766 27.0274 17.4167 
752 27.1523 25.0636 16.6754 
753 28.8456 25.1135 14.9024 
754 29.9753 29.1215 15.9352 
755 28.4412 29.0386 17.8463 
806 26.0266 24.5366 14.255 
807 24.8559 24.6431 14.9563 
808 24.3873 26.0215 15.3943 
809 23.5034 26.0985 16.6303 
810 23.0983 26.9734 16.4985 
811 25.2481 26.7161 15.3353 
812 23.8551 26.4953 14.5183 
819 24.2732 23.7742 15.1604 
822 22.0482 29.3911 14.0124 
826 21.5254 28.5265 15.0702 
835 21.7645 28.9875 15.9562 
35 29.7222 12.4594 19.0079 
42 29.993 9.99135 18.8344 
211 25.4728 16.2577 21.8791 
230 26.27 15.4982 21.8912 
271 25.5155 10.7196 18.7158 
526 27.2477 13.3853 21.299 
527 28.4887 13.9579 21.2365 
528 28.925 14.8303 20.2464 
529 27.9297 15.1145 19.2789 
530 26.6403 14.6342 19.3184 
531 26.2874 13.6736 20.3033 
533 24.9648 13.1178 20.2701 
534 23.9047 13.3545 19.4657 
535 22.684 12.4539 19.5176 
536 22.9435 11.0136 19.94 
537 22.3411 10.556 19.285 
538 22.0416 13.075 20.1232 
539 22.1543 12.6085 18.5704 
540 24.7202 12.2596 20.8968 
542 25.8587 14.9061 18.5442 
543 28.0917 15.8688 18.5486 
546 24.0323 14.0541 18.6661 
556 22.4055 16.3968 18.8432 
559 22.4399 15.2787 18.5354 
560 23.4481 16.4545 19.2451 
763 26.0564 10.1263 21.6916 
2 20.4011 21.213 18.681 
3 21.3989 21.7338 19.5153 
4 21.7579 23.041 19.383 
7 22.0539 20.8534 20.4911 
16 22.8083 21.3476 20.8636 
19 20.0964 20.1821 18.8787 
212 25.958 17.4921 21.4511 
213 25.108 18.5861 21.3688 
214 23.7693 18.2946 21.6172 
217 25.6301 19.9048 21.1101 
226 24.8053 20.5013 21.2236 
228 23.0746 19.1298 21.6366 
229 27.0395 17.5743 21.2064 
276 25.6683 22.7489 19.8034 
277 25.5559 22.0345 18.6046 
280 24.6102 22.8606 20.7858 
291 24.5787 21.555 18.3071 
299 28.7979 20.7212 21.3479 
300 29.7243 20.4948 20.3302 
302 29.3207 19.893 18.9855 
303 28.0696 19.4386 18.6975 
311 27.6954 20.4314 21.2537 
315 27.2793 19.5553 19.4292 
475 29.664 17.8987 21.9107 
557 21.2438 16.7915 19.7349 
558 21.4935 17.6869 19.9345 
561 22.5561 19.2164 18.3434 
5 21.2917 23.8088 18.335 
17 21.5427 24.8467 18.2648 
18 22.556 23.4591 20.0644 
25 29.64 26.6507 20.671 
26 29.7908 28.0428 20.6199 
38 28.8965 28.6188 20.2704 
39 28.6783 26.1599 20.3146 
268 23.7563 29.6362 18.066 
274 27.9352 23.4138 19.149 
275 26.8768 23.3936 20.0348 
289 24.9895 23.432 21.5406 
292 26.9762 23.9094 20.9704 
293 28.8573 23.9191 19.3668 
661 20.6796 28.3049 19.558 
662 21.2618 28.4675 18.1294 
663 22.255 28.4726 18.2166 
665 21.4499 28.436 20.3416 
672 20.4779 26.2654 20.5146 
743 26.8279 27.2452 18.5561 
744 25.8829 26.2817 18.8649 
745 24.9306 26.3856 20.0474 
746 23.9445 27.5771 19.9863 
747 23.9095 27.715 19.0441 
748 24.4941 25.3797 20.0297 
749 25.4298 26.0095 20.9475 
750 26.9108 28.1072 19.1973 
756 25.8218 25.4048 18.2095 
772 25.1797 29.9432 21.3778 
70 20.9937 10.3957 23.8469 
79 20.2589 10.5794 24.4924 
216 24.1215 15.9726 22.1701 
218 23.5427 14.7563 22.7108 
219 24.2893 13.6375 22.9988 
220 23.613 12.3858 23.5399 
221 22.9897 12.6584 24.9428 
222 22.3184 11.9527 24.9909 
223 22.9755 12.0054 22.7079 
224 24.2617 11.4851 23.4369 
225 22.4307 14.6095 22.8485 
231 25.3383 13.6649 22.9766 
406 20.8726 13.1622 22.3658 
415 20.8091 12.3976 22.9958 
465 24.2424 15.7557 25.8644 
466 25.1318 14.6713 25.6787 
467 26.3026 14.8367 25.0019 
468 26.6381 16.1705 24.586 
470 27.9477 16.3569 23.8962 
477 28.524 15.4672 23.7171 
479 27.0212 14.0233 24.9097 
544 29.1084 13.7162 22.1379 
545 26.9965 12.691 22.0867 
598 20.556 14.9227 25.2947 
601 21.0196 14.404 24.4132 
602 21.3666 15.6576 25.4327 
612 27.1718 10.6408 25.8432 
613 28.5308 11.0044 25.8597 
616 26.144 11.5003 25.3709 
625 25.3029 10.977 25.3929 
627 28.767 12.0105 25.5159 
774 28.3889 10.3216 22.8429 
73 22.3252 22.5255 23.6518 
74 23.5208 21.6731 23.3612 
75 23.5921 21.6575 22.3679 
76 21.8843 22.436 24.6896 
77 21.3623 22.1218 23.2058 
215 23.2311 17.0755 22.0632 
227 22.2348 16.9877 22.3966 
298 29.3563 21.1386 22.5809 
312 28.5685 21.3695 23.3327 
454 21.5889 18.5308 25.7081 
455 22.3301 20.0621 25.9687 
456 20.6506 20.5661 24.5358 
463 25.776 17.2953 24.6858 
464 24.5342 16.999 25.2688 
471 28.4279 17.6208 23.5728 
472 29.8062 17.5573 22.9188 
481 23.8674 17.8912 25.3399 
482 25.9963 18.344 24.3596 
483 27.9332 18.5669 23.8187 
603 20.6712 16.8159 23.453 
640 25.9541 22.4671 24.8645 
641 26.5806 23.1086 23.657 
642 26.2967 22.5337 22.922 
643 26.0366 21.3637 24.8658 
644 24.888 22.4289 24.8192 
64 20.2533 26.9163 24.372 
65 20.1233 28.2531 24.3115 
66 21.0971 29.0414 23.6811 
67 22.1877 28.4084 23.0657 
68 22.4508 27.0623 23.17 
69 21.4597 26.3065 23.8429 
71 21.5729 24.8279 24.0072 
72 22.4496 24.0152 23.4086 
78 20.8208 24.3619 24.6035 
80 23.3686 26.6031 22.7352 
81 22.9099 29.0274 22.5253 
84 23.1665 24.36 22.5854 
88 24.4782 27.4089 25.7872 
91 23.6672 29.8048 25.7414 
101 25.1899 25.3397 25.6562 
102 25.1775 27.7144 25.1315 
645 27.9233 24.0905 25.8728 
757 26.7411 26.7918 23.133 
758 26.016 27.9206 22.7559 
759 26.6684 29.124 22.4484 
760 27.9818 29.3845 22.8934 
761 28.6968 28.3749 23.4603 
762 28.0815 27.043 23.5786 
764 28.7587 25.8033 24.0752 
765 29.9404 25.9079 24.7413 
769 29.9995 24.0417 25.6183 
771 28.3562 24.7764 23.8932 
773 29.7206 28.6016 23.7693 
775 25.003 27.7574 22.5235 
776 26.3389 25.763 23.1581 
100 22.9527 10.2026 26.2928 
144 27.6685 16.0262 27.7173 
172 25.8596 15.2228 29.7171 
184 23.3968 15.4052 29.2245 
185 27.9187 14.6662 29.4412 
186 25.4764 14.7947 28.8136 
317 20.2724 10.4172 29.725 
318 20.3196 10.0483 28.3575 
322 21.1024 10.8107 27.4373 
331 21.6455 11.488 27.9806 
431 21.0063 13.233 29.7098 
432 21.5871 13.6947 29.0795 
469 23.0795 15.6146 26.6841 
478 23.1083 14.661 27.0384 
480 24.9282 13.6703 26.133 
599 20.1828 13.9774 26.4547 
600 21.0725 13.5771 26.6052 
614 29.5812 10.2137 26.2655 
685 20.044 15.7552 27.8811 
828 24.2527 11.2511 29.6791 
829 24.5016 12.2076 28.5163 
830 23.3642 12.9576 27.848 
831 23.2152 12.3616 27.1439 
832 25.3549 12.7897 28.8882 
833 25.167 11.6739 27.8313 
840 24.487 10.2279 29.5871 
94 23.2195 22.3267 28.9618 
95 23.6267 21.3155 27.9064 
96 23.5391 20.6094 28.4819 
97 23.8936 22.3937 29.7827 
98 22.404 22.1081 29.6945 
99 23.6702 23.311 26.3332 
106 29.9174 22.125 28.7218 
113 28.9477 20.0401 30.0182 
117 25.2094 19.7293 29.4656 
125 29.0053 22.67 28.7574 
126 27.5379 21.7012 29.9854 
127 28.271 19.7937 27.0411 
128 27.0169 19.338 27.5645 
129 26.8134 18.0348 27.674 
130 27.846 17.0844 27.4981 
131 29.0699 17.5129 27.0081 
132 29.2984 18.908 26.7444 
133 25.4893 17.4473 27.9455 
142 24.8749 18.143 28.2372 
143 29.8594 16.8053 26.8639 
145 26.1507 20.0325 27.656 
146 28.4176 20.865 26.7606 
154 21.332 20.285 29.9748 
163 21.8255 19.6556 29.2697 
450 20.3661 19.861 26.5512 
451 21.73 19.2459 26.4893 
452 22.2555 18.6828 27.8721 
453 22.7814 17.9588 27.505 
521 20.2866 22.6098 28.8928 
639 26.1235 22.9573 26.2848 
647 25.6457 23.0587 28.7983 
651 25.4644 22.5197 27.0439 
85 22.4581 26.4945 27.2899 
86 22.6726 27.8669 27.0503 
87 23.5971 28.4393 26.1774 
89 24.4372 26.0486 26.0594 
90 23.3601 25.4869 26.7954 
92 23.3368 24.0122 27.1022 
93 22.9967 23.7527 28.4136 
103 22.0502 28.6105 27.566 
104 21.6004 26.1628 27.8179 
105 22.4589 24.4675 29.0672 
522 20.0468 24.4989 27.1621 
610 27.8714 28.6609 27.0384 
611 26.9162 29.5311 26.53 
615 29.1976 29.0245 26.7878 
628 25.897 29.252 26.7105 
629 27.5449 27.7191 27.5061 
631 28.4141 25.0746 28.4352 
632 28.5567 25.5947 29.6917 
635 26.4617 23.7717 29.0756 
636 27.3236 24.2023 28.0305 
638 27.1932 23.7377 26.6431 
649 29.384 26.2347 29.8081 
650 29.262 25.4246 27.7981 
787 25.0086 27.1622 29.888 
790 25.7509 26.4344 29.5511 
791 24.5249 27.3616 28.9155 
792 22.5299 27.349 29.7097 
ITEM: TIMESTEP
10000
ITEM: NUMBER OF ATOMS
840
ITEM: BOX BOUNDS pp pp pp
9.9444860944481075e+00 3.0055513905554665e+01
9.9444860944481075e+00 3.0055513905554665e+01
9.9444860944481075e+00 3.0055513905554665e+01
ITEM: ATOMS id x y z 
178 11.2048 14.7319 12.1742 
179 11.6124 15.4026 13.4772 
181 11.1532 13.5957 12.191 
182 11.9661 14.5224 11.4281 
264 11.2617 10.6071 13.1881 
421 18.0263 12.7817 13.4817 
435 19.7128 12.9386 11.5083 
425 17.6397 15.1627 13.1424 
426 18.404 14.0187 12.8755 
428 19.5476 13.9075 11.9506 
437 17.9532 16.1569 12.8565 
440 18.6733 11.9155 13.4525 
441 19.852 16.0823 11.6921 
674 13.9034 12.4968 11.6268 
675 14.6041 11.2991 11.9378 
679 14.2687 10.2751 12.8895 
688 13.3443 10.4939 13.0768 
691 12.8601 12.6488 12.0074 
369 11.5278 11.2333 10.8151 
424 16.3714 15.0091 13.6629 
263 11.6497 11.5348 13.4034 
692 13.8926 14.3821 10.6946 
673 14.5004 13.5004 10.8326 
180 12.387 14.7566 13.6563 
676 15.8332 11.1378 11.288 
678 15.7521 13.2905 10.2425 
368 10.7646 11.5662 10.3267 
690 16.4276 10.2489 11.5116 
438 15.7533 15.9086 13.7036 
677 16.4178 12.0414 10.4804 
177 9.95437 15.2233 11.4729 
689 17.3734 11.8257 9.97008 
152 19.6643 18.7697 13.4769 
244 12.8879 16.7929 12.143 
240 13.5031 17.5572 10.2728 
241 12.957 17.8161 11.682 
242 11.7182 18.6844 11.7854 
243 11.2406 18.1274 12.4396 
245 13.8814 18.168 12.1796 
391 16.3428 21.5695 13.7949 
392 15.0868 22.5016 13.129 
514 17.1192 19.34 10.3364 
515 16.7586 19.5781 11.7971 
516 15.9108 20.067 11.6755 
518 18.087 18.8653 10.1721 
716 12.4002 22.5037 11.8444 
717 13.5082 22.2176 11.0139 
721 13.9183 20.8254 10.7076 
730 13.2266 20.238 11.0878 
733 11.879 21.7645 12.3488 
519 19.0597 21.3256 10.2374 
151 19.8467 19.7368 12.4773 
165 19.1146 20.5631 12.4979 
252 14.4214 17.9407 9.97917 
732 15.1302 23.199 9.96296 
726 11.5488 28.4294 13.5229 
335 18.9506 29.9992 11.2077 
316 19.111 29.7396 10.179 
328 16.0507 27.8535 13.4214 
728 11.3742 28.699 10.5664 
780 19.2915 24.2369 11.9383 
784 18.355 23.5312 12.7987 
782 19.8936 26.0112 10.3945 
723 12.6423 27.3806 11.3538 
14 19.3354 26.0071 13.6862 
793 17.4544 24.0068 12.7206 
722 12.1068 26.2552 11.889 
781 18.9134 25.1894 11.0089 
724 11.884 28.6828 11.4624 
727 12.6682 29.4703 11.2495 
731 14.3103 25.5177 10.1575 
323 17.2367 27.9957 10.2964 
735 13.5512 27.3764 10.7557 
325 16.0037 27.4343 12.4507 
327 14.9352 25.9081 13.0478 
734 11.0763 23.9966 12.9083 
324 17.2224 27.9377 11.6643 
326 15.7745 25.8912 12.5857 
718 14.179 23.3555 10.4971 
795 17.8474 25.3967 10.8539 
719 13.7509 24.6869 10.6548 
715 11.9713 23.79 12.1967 
336 17.992 28.2962 12.2483 
329 15.1437 27.9963 12.1265 
729 11.1889 26.4238 12.4882 
720 12.6207 24.902 11.5533 
725 11.0795 28.8836 12.7616 
266 11.4998 11.9642 15.5584 
339 19.6654 10.7541 17.1705 
340 18.7823 11.8501 17.1134 
341 17.4079 11.6888 17.0865 
342 16.9298 10.3301 16.9336 
345 14.4847 10.9953 16.9222 
346 13.0595 10.477 16.9051 
350 12.4034 11.2989 17.154 
353 16.7584 12.5667 16.989 
357 14.8023 12.1041 17.0534 
265 10.7913 13.0963 14.7655 
489 15.5574 16.0996 17.1314 
491 14.2646 15.4137 17.1762 
492 13.1567 15.6233 16.4625 
493 11.9942 14.6773 16.7122 
496 11.1308 15.2851 16.3644 
497 11.9111 14.0611 15.8282 
344 15.4682 10.0576 16.8927 
262 10.9569 11.9767 14.6299 
348 12.7256 10.3198 14.9115 
436 14.3185 12.6188 14.4853 
427 14.5118 13.6127 14.4671 
354 19.2032 12.882 17.1492 
439 16.4563 11.7411 14.4716 
504 12.9635 16.4279 15.753 
162 19.5882 16.4831 15.2693 
161 19.8411 13.7746 14.8831 
422 16.7953 12.7184 14.0615 
484 16.6829 15.5326 17.7491 
423 15.8937 13.747 14.076 
485 17.8725 16.2564 17.743 
349 12.9933 9.96008 17.9007 
498 14.26 14.529 17.7231 
490 19.1713 18.2526 16.8904 
380 12.4815 18.2542 17.7779 
385 10.3372 17.2174 17.4657 
388 15.5038 22.2199 14.103 
1 19.6467 22.2534 17.2389 
20 18.9 21.8132 16.6002 
283 11.2971 22.5374 16.9603 
284 10.8821 22.8021 15.5406 
287 11.5995 21.5091 17.2009 
164 19.0528 19.0367 14.3683 
381 11.359 18.1476 17.0259 
382 11.2015 18.962 15.8985 
383 12.2429 19.7193 15.4122 
384 13.4629 19.7646 16.1348 
386 14.5905 20.4529 15.5309 
387 14.3618 21.3661 14.592 
393 15.6251 20.3356 15.9204 
395 12.1225 20.2423 14.4601 
396 10.2531 19.0167 15.3187 
486 17.9926 17.4114 16.9758 
487 16.9391 17.7724 16.1103 
488 15.7069 17.1754 16.2221 
500 14.8781 17.4931 15.5911 
501 17.1571 18.5349 15.4111 
286 12.1363 23.0387 17.4307 
379 13.5525 19.0382 17.3604 
669 15.9896 23.2964 17.6351 
499 19.893 17.8493 17.4301 
399 13.3925 21.5564 14.1693 
398 14.423 19.0929 17.9463 
9 19.8955 25.6423 15.6632 
205 13.0112 27.7968 14.5648 
206 14.1399 23.4108 17.5067 
389 15.9388 23.3689 15.0364 
751 10.6246 26.7152 14.3887 
351 15.1613 29.1063 16.8881 
742 10.3676 25.7714 14.5051 
390 16.4714 23.9191 14.4491 
191 12.9064 27.1725 16.9975 
13 19.5856 27.2823 14.4408 
356 17.3887 28.3076 16.806 
355 19.8446 28.7188 17.0712 
11 17.5254 26.5735 15.021 
15 18.4906 24.0057 15.5138 
208 12.4705 28.1584 16.7533 
285 11.0126 23.7733 15.3545 
192 13.289 26.3459 15.9201 
193 13.6842 25.0343 16.0707 
347 12.4836 29.9197 15.7137 
194 13.8341 24.4752 17.2971 
8 19.4297 24.4098 15.9753 
207 13.9719 24.4616 15.1273 
12 17.1412 25.8516 14.5752 
337 17.8002 29.3613 16.9278 
10 19.0062 26.3871 14.6851 
668 17.1577 25.4182 17.6826 
196 13.3475 26.8806 14.5802 
338 19.181 29.5705 17.0069 
405 16.7518 15.0596 21.68 
32 10.6522 12.4184 20.1568 
33 10.9245 13.2246 19.7024 
31 10.0662 11.4634 19.2106 
403 19.061 15.3707 21.3364 
404 17.7606 15.8239 21.0456 
411 13.2554 15.1482 20.1222 
416 17.5132 16.6303 20.4033 
495 11.635 14.7977 18.6941 
541 10.2767 15.3942 20.5654 
695 14.2073 10.9296 20.255 
696 15.1244 11.9743 20.1062 
697 16.4734 11.686 20.2882 
700 14.7456 13.3009 19.5528 
709 13.7842 13.3363 19.5727 